 Gaussian 16, Revision A.03,

 ----------------------------------------------------------------------
 # PBE1PBE/def2TZVP guess=read empiricaldispersion=GD3BJ scf=maxcycle=9
 99 geom=check pop=nbo
 ----------------------------------------------------------------------

 ----------
 1cce_III_D
 ----------
 Structure from the checkpoint file:  "1cce_III_Dn.chk"
 Charge =  1 Multiplicity = 2

 SCF Done:  E(UPBE1PBE) =  -3249.28295682     A.U. after   55 cycles

 Alpha virt. eigenvalues --    0.23154   0.23482   0.23583   0.24059   0.24292
 Alpha virt. eigenvalues --    0.24569   0.24634   0.25157   0.25262   0.25519
 Alpha virt. eigenvalues --    0.25566   0.26095   0.26324   0.26603   0.26903

  Beta  occ. eigenvalues -- -256.45640 -30.19879 -26.03936 -26.02869 -26.01645
  Beta  occ. eigenvalues --  -19.37813 -19.32100 -19.31330 -19.31069 -19.27984
  Beta  occ. eigenvalues --  -19.26790 -14.51867 -14.50100 -14.49491 -14.49479
  Beta  occ. eigenvalues --  -10.43754 -10.42623 -10.37990 -10.37855 -10.37214
  Beta  occ. eigenvalues --  -10.37206 -10.37154 -10.36971 -10.36870 -10.36806
  Beta  occ. eigenvalues --  -10.36482 -10.36417 -10.36401 -10.36205 -10.35942
  Beta  occ. eigenvalues --  -10.34748 -10.34567 -10.34475 -10.34392 -10.34391
  Beta  occ. eigenvalues --  -10.34378 -10.34089 -10.33815 -10.33413 -10.33411
  Beta  occ. eigenvalues --  -10.33321 -10.32867 -10.32708 -10.32685 -10.32369
  Beta  occ. eigenvalues --  -10.31851 -10.31627 -10.31469 -10.31453  -3.53108
  Beta  occ. eigenvalues --   -2.31393  -2.28060  -2.25458  -1.21170  -1.21162
  Beta  occ. eigenvalues --   -1.20223  -1.16276  -1.13312  -1.12372  -1.12161
  Beta  occ. eigenvalues --   -1.11115  -1.10918  -1.09570  -0.97027  -0.95473
  Beta  occ. eigenvalues --   -0.95092  -0.94674  -0.94064  -0.93932  -0.93473
  Beta  occ. eigenvalues --   -0.90444  -0.89574  -0.88844  -0.88680  -0.87790
  Beta  occ. eigenvalues --   -0.85349  -0.84076  -0.83461  -0.82735  -0.81250
  Beta  occ. eigenvalues --   -0.79386  -0.78501  -0.77672  -0.77008  -0.73545
  Beta  occ. eigenvalues --   -0.73217  -0.72196  -0.71765  -0.71335  -0.71195
  Beta  occ. eigenvalues --   -0.70521  -0.68746  -0.68063  -0.67118  -0.66184
  Beta  occ. eigenvalues --   -0.65263  -0.64557  -0.64152  -0.63964  -0.61966
  Beta  occ. eigenvalues --   -0.61559  -0.61418  -0.61000  -0.60616  -0.59741
  Beta  occ. eigenvalues --   -0.58915  -0.58264  -0.58139  -0.58030  -0.57424
  Beta  occ. eigenvalues --   -0.56943  -0.56518  -0.56350  -0.56090  -0.55952
  Beta  occ. eigenvalues --   -0.55199  -0.55054  -0.54727  -0.54529  -0.54311
  Beta  occ. eigenvalues --   -0.53888  -0.53446  -0.53031  -0.52899  -0.52646
  Beta  occ. eigenvalues --   -0.52611  -0.52116  -0.51900  -0.51719  -0.51629
  Beta  occ. eigenvalues --   -0.51232  -0.50970  -0.50958  -0.50632  -0.50048
  Beta  occ. eigenvalues --   -0.49634  -0.49252  -0.49151  -0.48661  -0.48412
  Beta  occ. eigenvalues --   -0.48260  -0.47956  -0.47630  -0.47376  -0.47117
  Beta  occ. eigenvalues --   -0.46527  -0.46203  -0.45820  -0.45346  -0.44448
  Beta  occ. eigenvalues --   -0.43497  -0.43265  -0.41853  -0.41741  -0.41585
  Beta  occ. eigenvalues --   -0.41264  -0.40906  -0.40630  -0.39576  -0.38313
  Beta  occ. eigenvalues --   -0.37601  -0.36755  -0.36444  -0.34992  -0.34505
  Beta  occ. eigenvalues --   -0.33281  -0.32822  -0.31692  -0.31278  -0.30453
  Beta virt. eigenvalues --   -0.21101  -0.20449  -0.16613  -0.13404  -0.12657
  Beta virt. eigenvalues --   -0.11154  -0.10782  -0.10004  -0.09160  -0.08974
  Beta virt. eigenvalues --   -0.08132  -0.07062  -0.06083  -0.05504  -0.05419

 Mulliken charges and spin densities:
               1          2
     1  C   -0.351611  -0.298753
     2  C   -0.455572  -0.303489
     3  C   -0.413763  -0.278230
     4  C   -0.456016  -0.257181
     5  C    0.319325   0.072150
     6  C    0.029122   0.015612
     7  C   -0.147655   0.002749
     8  C    0.375240   0.089671
     9  C   -0.399742  -0.000968
    10  C   -0.315724  -0.002950
    11  C   -0.204771   0.001668
    12  C    0.302597   0.000198
    13  O   -0.260230   0.000209
    14  O   -0.371590   0.000102
    15  C    0.331039   0.072473
    16  C   -0.106131   0.008943
    17  C    0.015297  -0.009879
    18  C    0.317819   0.097089
    19  C   -0.400568  -0.002003
    20  C   -0.173334  -0.003699
    21  C   -0.245742   0.001336
    22  C    0.217397   0.064489
    23  C   -0.039406   0.046528
    24  C   -0.073109  -0.031339
    25  C    0.346392   0.095180
    26  C   -0.383623  -0.000251
    27  C   -0.021732   0.076990
    28  C   -0.400571  -0.099174
    29  C    0.329764   0.052608
    30  C   -0.060464   0.022317
    31  C    0.079274  -0.023265
    32  C    0.136781   0.098593
    33  C   -0.437930  -0.002202
    34  C   -0.291285  -0.000293
    35  C   -0.180481  -0.001118
    36  C    0.237352   0.000285
    37  O   -0.243158  -0.000103
    38  O   -0.395219   0.000002
    39  N   -0.245161  -0.121201
    40  N   -0.183007  -0.140204
    41  N   -0.160476  -0.149358
    42  N   -0.131108  -0.169736
    43  Fe   0.262925   1.962064
    44  O   -0.535053   0.014333
    45  O   -0.517713   0.018043
    46  H    0.106409   0.014272
    47  H    0.121024   0.014156
    48  H    0.155824   0.012001
    49  H    0.104834   0.011513
    50  H    0.138434  -0.000315
    51  H    0.168980   0.000766
    52  H    0.152701   0.000407
    53  H    0.127271  -0.000158
    54  H    0.157413   0.000578
    55  H    0.139207  -0.000113
    56  H    0.110532  -0.000023
    57  H    0.158566   0.000770
    58  H    0.169768   0.001037
    59  H    0.123209  -0.000262
    60  H    0.121350  -0.000052
    61  H    0.154616  -0.000132
    62  H    0.142842   0.000001
    63  H    0.111185   0.000417
    64  H    0.166993   0.002625
    65  H    0.165443   0.001076
    66  H    0.109264  -0.005928
    67  H    0.199584   0.006816
    68  H    0.125562   0.006583
    69  H    0.149730   0.000730
    70  H    0.176438   0.001554
    71  H    0.144161   0.000089
    72  H    0.124923  -0.000390
    73  H    0.142888  -0.000996
    74  H    0.109361   0.000395
    75  H    0.138982  -0.000036
    76  H    0.332918   0.014293
    77  H    0.322975  -0.001228
    78  H    0.345141   0.000002
    79  H    0.331969  -0.000009
    80  H    0.373623   0.001349
    81  H    0.377502  -0.000030
 Sum of Mulliken charges =   1.00000   1.00000

 Dipole moment (field-independent basis, Debye):
    X=             -8.4342    Y=              3.0505    Z=              1.7030  Tot=              9.1292
 Quadrupole moment (field-independent basis, Debye-Ang):
   XX=           -233.5533   YY=           -194.3975   ZZ=           -250.4458
   XY=             30.3755   XZ=              4.7395   YZ=             -1.4157

 Summary of Natural Population Analysis:

                                       Natural Population
                Natural  -----------------------------------------------
    Atom  No    Charge         Core      Valence    Rydberg      Total
 -----------------------------------------------------------------------
      C    1   -0.18823      0.99953     2.18012    0.00859     3.18823
      C    2   -0.16959      0.99952     2.16214    0.00792     3.16959
      C    3   -0.17154      0.99953     2.16405    0.00796     3.17154
      C    4   -0.16723      0.99951     2.15952    0.00820     3.16723
      C    5    0.08634      0.99950     1.90358    0.01058     2.91366
      C    6    0.00100      0.99950     1.99014    0.00936     2.99900
      C    7    0.00012      0.99951     1.99196    0.00841     2.99988
      C    8    0.08356      0.99949     1.90594    0.01102     2.91644
      C    9   -0.32544      0.99970     2.31923    0.00651     3.32544
      C   10   -0.21047      0.99966     2.20347    0.00734     3.21047
      C   11   -0.25315      0.99965     2.24486    0.00863     3.25315
      C   12    0.38185      0.99972     1.60072    0.01771     2.61815
      O   13   -0.25879      0.99986     3.24445    0.01448     4.25879
      O   14   -0.34339      0.99988     3.32999    0.01353     4.34339
      C   15    0.09286      0.99957     1.89655    0.01102     2.90714
      C   16    0.00596      0.99953     1.98603    0.00848     2.99404
      C   17   -0.04167      0.99950     2.03250    0.00967     3.04167
      C   18    0.10684      0.99957     1.88307    0.01053     2.89316
      C   19   -0.32549      0.99970     2.31905    0.00674     3.32549
      C   20   -0.11504      0.99958     2.10606    0.00940     3.11504
      C   21   -0.16441      0.99963     2.15645    0.00833     3.16441
      C   22    0.08102      0.99955     1.90818    0.01124     2.91898
      C   23    0.03012      0.99946     1.96061    0.00981     2.96988
      C   24   -0.06738      0.99948     2.05848    0.00941     3.06738
      C   25    0.10636      0.99954     1.88328    0.01082     2.89364
      C   26   -0.38819      0.99958     2.37541    0.01320     3.38819
      C   27   -0.04562      0.99958     2.03654    0.00950     3.04562
      C   28   -0.25879      0.99956     2.24865    0.01058     3.25879
      C   29    0.08782      0.99952     1.90148    0.01118     2.91218
      C   30   -0.00183      0.99949     1.99405    0.00830     3.00183
      C   31   -0.00686      0.99950     1.99802    0.00933     3.00686
      C   32    0.08857      0.99953     1.90081    0.01108     2.91143
      C   33   -0.32700      0.99970     2.32060    0.00671     3.32700
      C   34   -0.21852      0.99968     2.21114    0.00770     3.21852
      C   35   -0.25392      0.99965     2.24570    0.00856     3.25392
      C   36    0.38454      0.99972     1.59796    0.01779     2.61546
      O   37   -0.25560      0.99986     3.24141    0.01432     4.25560
      O   38   -0.35514      0.99988     3.34269    0.01257     4.35514
      N   39   -0.27156      0.99967     2.75099    0.02090     3.77156
      N   40   -0.27159      0.99968     2.74897    0.02294     3.77159
      N   41   -0.24283      0.99967     2.71977    0.02339     3.74283
      N   42   -0.28519      0.99968     2.76275    0.02276     3.78519
     Fe   43    1.25590      8.99617     2.73232    0.01561    11.74410
      O   44   -0.41919      0.99992     3.40983    0.00944     4.41919
      O   45   -0.39616      0.99992     3.38787    0.00837     4.39616
      H   46    0.11108      0.00000     0.38740    0.00152     0.38892
      H   47    0.11456      0.00000     0.38389    0.00155     0.38544
      H   48    0.12002      0.00000     0.37880    0.00117     0.37998
      H   49    0.11403      0.00000     0.38474    0.00123     0.38597
      H   50    0.11189      0.00000     0.38768    0.00043     0.38811
      H   51    0.12209      0.00000     0.37723    0.00068     0.37791
      H   52    0.11926      0.00000     0.38010    0.00064     0.38074
      H   53    0.10764      0.00000     0.39152    0.00084     0.39236
      H   54    0.12649      0.00000     0.37256    0.00095     0.37351
      H   55    0.12145      0.00000     0.37778    0.00077     0.37855
      H   56    0.10549      0.00000     0.39363    0.00089     0.39451
      H   57    0.11867      0.00000     0.38066    0.00067     0.38133
      H   58    0.12408      0.00000     0.37508    0.00084     0.37592
      H   59    0.10974      0.00000     0.38983    0.00043     0.39026
      H   60    0.10440      0.00000     0.39475    0.00085     0.39560
      H   61    0.10697      0.00000     0.39239    0.00064     0.39303
      H   62    0.10042      0.00000     0.39875    0.00083     0.39958
      H   63    0.15106      0.00000     0.34747    0.00147     0.34894
      H   64    0.13703      0.00000     0.36178    0.00119     0.36297
      H   65    0.13498      0.00000     0.36425    0.00077     0.36502
      H   66    0.09242      0.00000     0.40647    0.00111     0.40758
      H   67    0.13131      0.00000     0.36784    0.00085     0.36869
      H   68    0.08093      0.00000     0.41825    0.00082     0.41907
      H   69    0.11722      0.00000     0.38219    0.00059     0.38278
      H   70    0.12261      0.00000     0.37672    0.00067     0.37739
      H   71    0.11548      0.00000     0.38410    0.00042     0.38452
      H   72    0.11867      0.00000     0.38046    0.00087     0.38133
      H   73    0.11847      0.00000     0.38066    0.00087     0.38153
      H   74    0.11480      0.00000     0.38431    0.00089     0.38520
      H   75    0.12182      0.00000     0.37745    0.00073     0.37818
      H   76    0.25475      0.00000     0.24370    0.00155     0.24525
      H   77    0.24890      0.00000     0.24898    0.00213     0.25110
      H   78    0.25183      0.00000     0.24699    0.00119     0.24817
      H   79    0.24414      0.00000     0.25476    0.00110     0.25586
      H   80    0.25639      0.00000     0.24238    0.00123     0.24361
      H   81    0.25591      0.00000     0.24193    0.00216     0.24409
 =======================================================================
   * Total *    1.00000     52.97963   116.47493    0.54544   170.00000

 Normal termination of Gaussian 16 at Tue Apr  4 22:34:42 2023.
 Gaussian 16:  ES64L-G16RevA.03 25-Dec-2016

 ----------------------------------------------------------------------
 # PBE1PBE/def2TZVP empiricaldispersion=GD3BJ geom=check guess=read scr
 f=(smd,solvent=Chloroform)
 ----------------------------------------------------------------------

 ---------------
 1cce_III_D_solv
 ---------------
 Structure from the checkpoint file:  "1cce_III_Dn.chk"
 Charge =  1 Multiplicity = 2

                         Standard orientation:
 ---------------------------------------------------------------------
 Center     Atomic      Atomic             Coordinates (Angstroms)
 Number     Number       Type             X           Y           Z
 ---------------------------------------------------------------------
      1          6           0        2.228073   -0.064178   -0.532400
      2          6           0       -1.111639   -3.461964   -0.042956
      3          6           0       -4.471778   -0.011832   -0.035872
      4          6           0       -1.058923    3.316837   -0.040662
      5          6           0        1.619585   -1.319478   -0.416788
      6          6           0        2.339172   -2.527609   -0.379796
      7          6           0        1.349013   -3.553668   -0.296679
      8          6           0        0.123949   -2.875218   -0.189835
      9          6           0        1.529043   -5.026224   -0.385818
     10          6           0        3.832534   -2.585932   -0.497610
     11          6           0        4.431185   -2.809941    0.916175
     12          6           0        5.931167   -2.923133    0.741476
     13          8           0        6.459052   -3.883382    0.267323
     14          8           0        6.665558   -1.871362    1.202663
     15          6           0       -2.375976   -2.838731   -0.080464
     16          6           0       -3.647534   -3.549730   -0.152616
     17          6           0       -4.621415   -2.539086   -0.199918
     18          6           0       -3.888339   -1.284898   -0.138623
     19          6           0       -3.793487   -5.020223   -0.275335
     20          6           0       -6.055785   -2.601730   -0.290636
     21          6           0       -6.816852   -3.709994   -0.350882
     22          6           0       -3.858331    1.234009    0.088775
     23          6           0       -4.545496    2.495614    0.346632
     24          6           0       -3.522592    3.455565    0.376217
     25          6           0       -2.299944    2.729133    0.103124
     26          6           0       -6.009910    2.647181    0.580371
     27          6           0       -3.507344    4.875117    0.586743
     28          6           0       -4.555259    5.744296    0.742002
     29          6           0        0.192849    2.743529   -0.180349
     30          6           0        1.403096    3.452147   -0.501377
     31          6           0        2.357785    2.455860   -0.668458
     32          6           0        1.673467    1.204198   -0.410510
     33          6           0        1.666283    4.906242   -0.663289
     34          6           0        3.784991    2.696165   -1.055349
     35          6           0        4.663101    2.353138    0.181108
     36          6           0        6.149814    2.563855   -0.053043
     37          8           0        6.944697    2.205168    0.763045
     38          8           0        6.478853    3.161295   -1.234377
     39          7           0        0.302443   -1.531135   -0.293372
     40          7           0       -2.545860   -1.502139   -0.155650
     41          7           0       -2.525912    1.404619    0.019576
     42          7           0        0.379745    1.403345   -0.054019
     43         26           0       -0.985547    0.050249    0.401821
     44          8           0       -1.615793    0.423409   -1.585907
     45          8           0       -0.275491   -0.355422    2.255601
     46          1           0        3.288192   -0.072246   -0.748847
     47          1           0       -1.118252   -4.531878    0.121561
     48          1           0       -5.554907    0.026280   -0.054475
     49          1           0       -1.049949    4.399721   -0.046642
     50          1           0        0.676975   -5.564739    0.030785
     51          1           0        1.642641   -5.348857   -1.425618
     52          1           0        2.415872   -5.360230    0.158138
     53          1           0        4.169576   -1.614461   -0.843189
     54          1           0        4.078850   -3.461011   -1.099080
     55          1           0        4.060910   -3.760035    1.294945
     56          1           0        4.224656   -1.924589    1.517115
     57          1           0       -4.415720   -5.442638    0.517345
     58          1           0       -4.257716   -5.284513   -1.231825
     59          1           0       -2.827529   -5.521656   -0.223087
     60          1           0       -6.567739   -1.642800   -0.311960
     61          1           0       -7.753051   -3.708638   -0.898108
     62          1           0       -6.538560   -4.638290    0.133474
     63          1           0       -5.884262    3.700640    0.120788
     64          1           0       -6.356235    3.373969    1.334579
     65          1           0       -6.753946    2.712134   -0.225616
     66          1           0       -2.499426    5.289523    0.623187
     67          1           0       -5.137992    6.131034    1.571132
     68          1           0       -5.395358    5.316338    0.158475
     69          1           0        2.584441    5.197879   -0.149541
     70          1           0        1.775790    5.180442   -1.717095
     71          1           0        0.858199    5.516622   -0.256384
     72          1           0        3.895692    3.758363   -1.249074
     73          1           0        4.035188    1.984135   -1.842212
     74          1           0        4.533057    1.287982    0.357922
     75          1           0        4.376347    3.058627    0.961408
     76          1           0       -2.272574    0.240501   -2.259670
     77          1           0       -0.787947   -0.027823   -1.794433
     78          1           0        6.860655    4.031212   -1.078693
     79          1           0        6.444743   -1.678946    2.119129
     80          1           0       -0.846237   -0.136423    2.996565
     81          1           0        0.384924    0.331549    2.088976
 ---------------------------------------------------------------------

 SCF Done:  E(UPBE1PBE) =  -3249.38885921     A.U. after  129 cycles
 Error termination via Lnk1e in /afs/math/software/gaussian/g16.A03/g16/l502.exe at Fri Apr  7 14:55:20 2023.
